% Model:              Probe_43 design optimization with comsol_1 for cell radius sweep.mph
% Version:            COMSOL 5.1.0.234
% Date:               Aug 2 2019, 16:01
% Dimension:          1
% Nodes:              612
% Expressions:        1
% Description:        Point graph
% R                       Height
1700                      0.03784805385699365
1710                      0.038945318839176804
1720                      0.04007254122206481
1730                      0.04122631288535012
1740                      0.04240137948764196
1750                      0.043591912908631354
1760                      0.04479021746271639
1770                      0.045986253933335657
1780                      0.04716896803351707
1790                      0.0483245545011897
1800                      0.049437541500490206
1810                      0.050490863234007886
1820                      0.051465922047909556
1830                      0.05234361683664413
1840                      0.053104541646702884
1850                      0.05373078343157015
1860                      0.05420607803164303
1870                      0.0545174472390219
1880                      0.05465605040731146
1890                      0.05461764963350431
1900                      0.054403133597176176
1910                      0.054018381965733095
1920                      0.05347386760873168
1930                      0.05278374783975094
1940                      0.05196509613793225
1950                      0.0510365759179791
1960                      0.05001756079111914
1970                      0.04892717697377371
1980                      0.047783864612976755
1990                      0.046604064667304795
2000                      0.04540271201020681
2010                      0.04419290014792571
2020                      0.04298521705427108
2030                      0.04178896717006225
2040                      0.04061135354721771
2050                      0.03945785126838133
2060                      0.03833302941900025
2070                      0.0372398732895961
2080                      0.03618039110838214
2090                      0.0351562068459955
2100                      0.03416788006130629
2110                      0.033215611607397735
2120                      0.032299156572424714
2130                      0.0314179401079503
2140                      0.030571285226692717
2150                      0.02975798975500183
2160                      0.02897720604470782
2170                      0.028227714678796336
2180                      0.027508267660524905
2190                      0.026817627413147745
2200                      0.026154603900679824
1700                      0.12142769379103774
1710                      0.12479743179917481
1720                      0.1282964526235854
1730                      0.13192364843356538
1740                      0.13567618293448017
1750                      0.13954795587605337
1760                      0.14352860620492905
1770                      0.14760584943550878
1780                      0.1517605969000378
1790                      0.15596905002536254
1800                      0.16019981031194294
1810                      0.1644148806414015
1820                      0.16856837596379415
1830                      0.17260716028407838
1840                      0.17646727563997286
1850                      0.18008138867346052
1860                      0.18337503229170032
1870                      0.1862725710154992
1880                      0.18869894924329753
1890                      0.1905853508246209
1900                      0.19187218741171877
1910                      0.1925149643451059
1920                      0.19248779042825184
1930                      0.19178476267701225
1940                      0.19042120254846145
1950                      0.18843227833622722
1960                      0.1858704659130493
1970                      0.18280130955818052
1980                      0.1792988985364192
1990                      0.17544100200091722
2000                      0.17130497776420198
2010                      0.16696556668465845
2020                      0.16248961831941058
2030                      0.15793848964684645
2040                      0.1533630194407646
2050                      0.14880736475870432
2060                      0.1443067765480479
2070                      0.13988882826826665
2080                      0.1355757980457455
2090                      0.1313827962240674
2100                      0.1273213769068396
2110                      0.12339818016570615
2120                      0.11961790738993558
2130                      0.1159817550843242
2140                      0.11248924645430693
2150                      0.10913857355326868
2160                      0.10592607277443289
2170                      0.10284829054316916
2180                      0.09990098643029306
2190                      0.09707883922620372
2200                      0.09437649171828214
1700                      0.1854841464778462
1710                      0.1906471509818135
1720                      0.196096948944589
1730                      0.20185242292948097
1740                      0.2079321093118783
1750                      0.21435596452555522
1760                      0.22114370706992423
1770                      0.2283142217184331
1780                      0.23588575578686666
1790                      0.24387145559060716
1800                      0.2522815222664499
1810                      0.2611193750901954
1820                      0.27038133496060496
1830                      0.2800464002226129
1840                      0.29008028447674317
1850                      0.30042353621162
1860                      0.3109900194290725
1870                      0.321658653879939
1880                      0.33226715518481476
1890                      0.3426059760155531
1900                      0.35242070217872395
1910                      0.3614143159779784
1920                      0.36926043260464986
1930                      0.37562165227250144
1940                      0.3801795994573818
1950                      0.3826706370801314
1960                      0.38291795492129266
1970                      0.38085706048922363
1980                      0.3765471872089249
1990                      0.3701635420919406
2000                      0.3619755142961031
2010                      0.35231034716851795
2020                      0.34152123094924874
2030                      0.3299535689296446
2040                      0.31792215784813793
2050                      0.3056942195510108
2060                      0.29349198223174666
2070                      0.28148592253891636
2080                      0.26980006487835057
2090                      0.2585242039944531
2100                      0.24771171355173283
2110                      0.23739760904441196
2120                      0.22759270299784115
2130                      0.218299424392919
2140                      0.20950574623365173
2150                      0.20119672279874595
2160                      0.19335213448653152
2170                      0.18594784464278635
2180                      0.1789609778665181
2190                      0.17236602694813197
2200                      0.1661392932914727
1700                      0.2009982265720983
1710                      0.20702350592173221
1720                      0.21348347572996684
1730                      0.22042194823659506
1740                      0.22789034750064566
1750                      0.23594623981273594
1760                      0.2446559799803647
1770                      0.254095554319979
1780                      0.2643479767201019
1790                      0.275511780734353
1800                      0.28769659978781276
1810                      0.30102967510189177
1820                      0.31564585717247406
1830                      0.3317064328882856
1840                      0.3493768566425716
1850                      0.36883500458447294
1860                      0.3902578713209771
1870                      0.4137975272721509
1880                      0.43955123857663164
1890                      0.4675066933582025
1900                      0.49744423073187766
1910                      0.5288145801651224
1920                      0.5605723837283988
1930                      0.591041757051272
1940                      0.6178192677833835
1950                      0.6380056697534832
1960                      0.6487549257610988
1970                      0.64813044874187
1980                      0.6358506975454854
1990                      0.6134328271180783
2000                      0.5836175087271308
2010                      0.5494976148200035
2020                      0.5137748803103394
2030                      0.47842612040098065
2040                      0.4447013388813621
2050                      0.41327013338215635
2060                      0.38439806644528973
2070                      0.3581072778043066
2080                      0.3342748020310731
2090                      0.3127187333171498
2100                      0.2932191069088284
2110                      0.2755671323422828
2120                      0.2595624334301043
2130                      0.24501763740093616
2140                      0.23176829706133775
2150                      0.2196670283195719
2160                      0.20858613478711643
2170                      0.19841282551690184
2180                      0.18904775631142776
2190                      0.18040660985943965
2200                      0.17241219059541882
1700                      0.19076889555427134
1710                      0.19705079412064447
1720                      0.20386140573045325
1730                      0.2112705844875816
1740                      0.2193539170194012
1750                      0.228206072323108
1760                      0.23793588382580755
1770                      0.24867432400822637
1780                      0.2605791150919784
1790                      0.2738428101335689
1800                      0.28869573281588956
1810                      0.30542673915503515
1820                      0.3243915020015906
1830                      0.3460379146297045
1840                      0.3709164871116796
1850                      0.3997422234116673
1860                      0.43340078257165515
1870                      0.47302143047274486
1880                      0.5199614345045125
1890                      0.5758138267182318
1900                      0.6421357150421415
1910                      0.7197206338609594
1920                      0.8067973534204322
1930                      0.8955640794117702
1940                      0.9682167253866485
1950                      0.9997447033124345
1960                      0.9745546125533048
1970                      0.9021411017107042
1980                      0.8077056327617608
1990                      0.7124164826119437
2000                      0.6266810648196366
2010                      0.5533481500538144
2020                      0.49178774404225706
2030                      0.44031015461640793
2040                      0.3971045831963575
2050                      0.36059426975307723
2060                      0.32948239387421496
2070                      0.30275121347628586
2080                      0.2795905047231701
2090                      0.2593732264241716
2100                      0.24159399727327385
2110                      0.22585490538341824
2120                      0.2118378270221045
2130                      0.19928417416456584
2140                      0.18798150374194697
2150                      0.17775867792263977
2160                      0.16847072101476712
2170                      0.16000039817218295
2180                      0.15224514844919865
2190                      0.14512039167926638
2200                      0.13855385186329963
1700                      0.17091293671748786
1710                      0.1770126640710395
1720                      0.1836821390189978
1730                      0.19100097513670417
1740                      0.1990661361382069
1750                      0.2079927406464439
1760                      0.21792067501634
1770                      0.2290259219063272
1780                      0.24152289530337362
1790                      0.2556796769151857
1800                      0.2718428506028621
1810                      0.29045509542878434
1820                      0.31209789714062663
1830                      0.3375473929941906
1840                      0.36784804225434853
1850                      0.4044745457337445
1860                      0.44947826684145636
1870                      0.5058391181006704
1880                      0.5779314537475447
1890                      0.6721040174735466
1900                      0.7970495414360899
1910                      0.9614404683020042
1920                      1.1593875063414751
1930                      1.3274889332060351
1940                      1.3365978250997617
1950                      1.1718032985975404
1960                      0.9619842463939418
1970                      0.7845603810858192
1980                      0.6498116209991004
1990                      0.5488506767257106
2000                      0.47207716880896056
2010                      0.41241548272652806
2020                      0.36502922897646756
2030                      0.3266384913489769
2040                      0.29498839415123523
2050                      0.2684972965593455
2060                      0.24602383775582085
2070                      0.2267418793208215
2080                      0.21002608898361647
2090                      0.19540841821707194
2100                      0.18251973102497526
2110                      0.17107816810212087
2120                      0.16085617240998565
2130                      0.15167097528825776
2140                      0.1433751263927923
2150                      0.13584755684426353
2160                      0.12898769368951796
2170                      0.12271236247754869
2180                      0.11695040366406345
2190                      0.1116427818040279
2200                      0.1067382995106747
1700                      0.14888604218990512
1710                      0.1545381227685009
1720                      0.16075289645908267
1730                      0.16761741129104765
1740                      0.17523417301366664
1750                      0.18373007819675125
1760                      0.19326297246824603
1770                      0.2040302845758951
1780                      0.2162808706635828
1790                      0.23033676398865013
1800                      0.24661497027579088
1810                      0.26568171251297334
1820                      0.28829556161592057
1830                      0.3155267479751915
1840                      0.3488989705745353
1850                      0.39068150483181857
1860                      0.4443434753530002
1870                      0.515472518643342
1880                      0.6133947722274907
1890                      0.754266610265686
1900                      0.9649978403308936
1910                      1.2733457735668587
1920                      1.586465898254416
1930                      1.5308712164752534
1940                      1.1815692740084638
1950                      0.8846483116023229
1960                      0.6862888644909876
1970                      0.5534729104781924
1980                      0.4605552119540565
1990                      0.3926612186352625
2000                      0.3411650574207059
2010                      0.30090107584799486
2020                      0.26861406189760617
2030                      0.2421843750734999
2040                      0.22017248827268798
2050                      0.20157078890935118
2060                      0.18565067698799523
2070                      0.1718781136187108
2080                      0.15985017511182104
2090                      0.14926065305562097
2100                      0.13986602385053387
2110                      0.1314790168171583
2120                      0.12394742288347939
2130                      0.11714789509983604
2140                      0.11097988889999054
2150                      0.10536095914517332
2160                      0.10022137130506387
2170                      0.09550409376689252
2180                      0.09115885807808197
2190                      0.08714461922301875
2200                      0.08342542466209474
1700                      0.12804974749294787
1710                      0.1331382787194091
1720                      0.13875778733494495
1730                      0.14499349372114057
1740                      0.1519481434374177
1750                      0.159749778084985
1760                      0.1685613109846261
1770                      0.17858402679352023
1780                      0.19008346275752006
1790                      0.20340516655538096
1800                      0.21900551433802
1810                      0.23752036355914077
1820                      0.2598265757831153
1830                      0.28719524163061155
1840                      0.321529606168907
1850                      0.3658043727172902
1860                      0.42489379423927126
1870                      0.5073134852892635
1880                      0.6290333202197662
1890                      0.8219888424251168
1900                      1.1476047950675472
1910                      1.6192673615014903
1920                      1.6603339384500604
1930                      1.1782772919443956
1940                      0.8243907747097322
1950                      0.6161873604605604
1960                      0.4864846519606467
1970                      0.3995170613907295
1980                      0.33765206416088955
1990                      0.2915587034271816
2000                      0.2559710682539355
2010                      0.2277017918990291
2020                      0.20472807650512392
2030                      0.18570021226766598
2040                      0.16969309689299866
2050                      0.1560447243335627
2060                      0.1442744139059544
2070                      0.13402110736628717
2080                      0.1250137097855649
2090                      0.1170394524369748
2100                      0.10993186315975872
2110                      0.10355837507227057
2120                      0.09781264196142457
2130                      0.09260677617124666
2140                      0.08786900067956568
2150                      0.08354014729696989
2160                      0.07956962138848764
2170                      0.0759157621117482
2180                      0.07254263555335602
2190                      0.0694195617583631
2200                      0.0665202850732966
1700                      0.10970584063007757
1710                      0.1142158853904063
1720                      0.1192110976786042
1730                      0.12477368818861462
1740                      0.1310011598003075
1750                      0.13801717951218906
1760                      0.1459797787292303
1770                      0.15508804380691305
1780                      0.16560352058407773
1790                      0.17787120665098888
1800                      0.1923640388057859
1810                      0.20973859489062388
1820                      0.230927430713727
1830                      0.2573252813486133
1840                      0.2910678197338742
1850                      0.33566304648430356
1860                      0.39713597564625397
1870                      0.4868316903387687
1880                      0.6281772904950246
1890                      0.8743368891764268
1900                      1.3313373805540334
1910                      1.7504583270818581
1920                      1.2710487657119809
1930                      0.8256067479152059
1940                      0.5876341336513752
1950                      0.4502875077785056
1960                      0.36269182556516416
1970                      0.30243132625947333
1980                      0.25860377676487367
1990                      0.22535479780843387
2000                      0.1993003163582497
2010                      0.1783521036940701
2020                      0.16115121762643167
2030                      0.14678485597443128
2040                      0.1346075904374986
2050                      0.12416008753225267
2060                      0.11509894075083363
2070                      0.10716866282752839
2080                      0.10017149852365863
2090                      0.09395315511437982
2100                      0.08839181952079354
2110                      0.08338974791315429
2120                      0.07886773480117529
2130                      0.07476027982662564
2140                      0.07101339752048008
2150                      0.06758244015191897
2160                      0.06442978449093777
2170                      0.06152341146762518
2180                      0.058835838690180664
2190                      0.05634389641199183
2200                      0.054027065538044136
1700                      0.09408457020555919
1710                      0.09805182418327638
1720                      0.10245598458486357
1730                      0.10737301699474554
1740                      0.11289282841730872
1750                      0.11913348574098731
1760                      0.12624024448389998
1770                      0.13440345622895444
1780                      0.14387345488739334
1790                      0.15498507934228517
1800                      0.16819970618716099
1810                      0.18416689136947847
1820                      0.203827308219989
1830                      0.22861460040571013
1840                      0.2607937272307584
1850                      0.3041758555030192
1860                      0.3656463246374063
1870                      0.4589163496214913
1880                      0.6147562183164424
1890                      0.9106956245388887
1900                      1.4729120706701704
1910                      1.4974940280001678
1920                      0.9145360407274964
1930                      0.6034294889665569
1940                      0.44131483397358395
1950                      0.34507358142462236
1960                      0.2820010555035778
1970                      0.23765759265306888
1980                      0.2048588017205081
1990                      0.17964678155715952
2000                      0.15967836029657442
2010                      0.14348323636543298
2020                      0.13008902431727318
2030                      0.11883390538331103
2040                      0.10924319210192092
2050                      0.10097896968590685
2060                      0.0937831318928527
2070                      0.0874632368189521
2080                      0.08187062443894842
2090                      0.07688717255359086
2100                      0.07241917722607462
2110                      0.06839182796618686
2120                      0.06474369637609749
2130                      0.061424062136312726
2140                      0.05839117360893949
2150                      0.0556097405365971
2160                      0.05305036624273078
2170                      0.05068799601932807
2180                      0.048500882961082306
2190                      0.046470584948875966
2200                      0.04458126207789142
1700                      0.08090182349694867
1710                      0.08437955709151429
1720                      0.08824750799569529
1730                      0.09257442053463043
1740                      0.09744258477644542
1750                      0.10296005726160802
1760                      0.10926139025050521
1770                      0.11652294459327403
1780                      0.12498022553658436
1790                      0.1349464004206131
1800                      0.14685932084011621
1810                      0.1613437323543185
1820                      0.17932020409554975
1830                      0.20220141382932882
1840                      0.23228009188686663
1850                      0.27350583565545306
1860                      0.3332863193811552
1870                      0.4271314644989298
1880                      0.5923074583859202
1890                      0.9303047452017762
1900                      1.500868230173181
1910                      1.1439566050937817
1920                      0.6795308585344536
1930                      0.4613017861340555
1940                      0.3446828641123331
1950                      0.2734710769050699
1960                      0.22577864898412917
1970                      0.1917076528054963
1980                      0.1661924839799689
1990                      0.14638822611779764
2000                      0.13058547626189262
2010                      0.11768532038931939
2020                      0.10696085843944972
2030                      0.09790889013007156
2040                      0.09016729553875388
2050                      0.08347364145213242
2060                      0.07762890784293301
2070                      0.07248336749683354
2080                      0.06791964924721261
2090                      0.0638445193466071
2100                      0.060185293959196
2110                      0.056881348450734025
2120                      0.0538837670669159
2130                      0.05115307016136263
2140                      0.04865514455257208
2150                      0.0463617549129354
2160                      0.044249333340882456
2170                      0.04229750770819558
2180                      0.040489120011284276
2190                      0.038809157221759184
2200                      0.03724434186943034
1700                      0.06992179562946516
1710                      0.07297209747797527
1720                      0.0763700940875209
1730                      0.08017679681929613
1740                      0.08446805673738064
1750                      0.08933995838858964
1760                      0.09491669579649632
1770                      0.10135990605607384
1780                      0.10888472653870272
1790                      0.11778413146037986
1800                      0.12846594025918764
1810                      0.14151959506043163
1820                      0.1578193216656639
1830                      0.17873075093189572
1840                      0.2064959672976541
1850                      0.2450820780138341
1860                      0.30211815042511253
1870                      0.3942530464068175
1880                      0.5640413279751526
1890                      0.9326109771305154
1900                      1.389234365406324
1910                      0.8718898221904834
1920                      0.5263195082666345
1930                      0.36582773869473895
1940                      0.27763090113626737
1950                      0.22256534555157872
1960                      0.18509208550125267
1970                      0.15800155644175434
1980                      0.13753535769373165
1990                      0.12153737873860522
2000                      0.10869766260340467
2010                      0.09817002575855747
2020                      0.0893836827748892
2030                      0.08194279898580574
2040                      0.07556185583816885
2050                      0.07003116220692036
2060                      0.0651919878899422
2070                      0.06092387365546723
2080                      0.05713189506464534
2090                      0.05374151964080521
2100                      0.05069239406833914
2110                      0.04793643760407908
2120                      0.0454334745250615
2130                      0.04315097320729752
2140                      0.0410610601788194
2150                      0.039140866960823605
2160                      0.03737077200205759
2170                      0.03573433404369827
2180                      0.03421698471128679
2190                      0.03280650585395415
2200                      0.03149206301805833
